LAMMPS (23 Jun 2022 - Update 1)
# Tell Atomify where initial camera position should be
#/camera position 30 50 90
#/camera target 30 30 30
# Information about atoms for coloring and bonds
#/atom 1 silicon
#/atom 2 oxygen
#/bond 1 2 2.6

variable porosity equal 0.75

units metal
boundary p p p
atom_style atomic
read_data betacristobalite.data
Reading data file ...
  orthogonal box = (-3.57999 -3.57999 -3.57999) to (3.57999 3.57999 3.57999)
  1 by 2 by 2 MPI processor grid
  reading atoms ...
  24 atoms
  read_data CPU = 0.012 seconds
replicate 20 20 20
Replicating atoms ...
  orthogonal box = (-3.57999 -3.57999 -3.57999) to (139.61961 139.61961 139.61961)
  1 by 2 by 2 MPI processor grid
  192000 atoms
  replicate CPU = 0.026 seconds

pair_style vashishta/table 10000 0.5
pair_coeff	* * SiO2.vashishta Si O
Reading vashishta potential file SiO2.vashishta with DATE: 2015-10-14
neigh_modify every 1 delay 0 check yes

mass 1 28.08
mass 2 15.9994

velocity all create 4500 376847 loop geom

fix nvt all nvt temp 4500 4500 0.1
thermo_style custom step temp etotal cpuremain
thermo 100
write_data initial.data
System init for write_data ...
Neighbor list info ...
  update every 1 steps, delay 0 steps, check yes
  max neighbors/atom: 2000, page size: 100000
  master list distance cutoff = 7.5
  ghost atom cutoff = 7.5
  binsize = 3.75, bins = 39 39 39
  1 neighbor lists, perpetual/occasional/extra = 1 0 0
  (1) pair vashishta/table, perpetual
      attributes: full, newton on
      pair build: full/bin/atomonly
      stencil: full/bin/3d
      bin: standard

timestep 0.002
run 5000
Per MPI rank memory allocation (min/avg/max) = 36.84 | 36.84 | 36.84 Mbytes
   Step          Temp          TotEng        CPULeft    
         0   4500          -504850.62      0            
       100   2666.9967     -494228.27      684.32568    
       200   2816.5194     -479086.19      612.09161    
       300   3002.1724     -461714.12      585.26567    
       400   3233.2878     -442657.54      575.1845     
       500   3541.6691     -422497.45      599.09123    
       600   3880.7134     -402195.77      605.23526    
       700   4195.6523     -383372.41      654.68923    
       800   4462.0016     -368536.84      667.99267    
       900   4565.9979     -361989.48      682.97872    
      1000   4474.5938     -365721.83      700.37196    
      1100   4477.3113     -366652.52      687.54126    
      1200   4528.4908     -363946.71      695.00023    
      1300   4509.5221     -365148.04      683.48585    
      1400   4476.8458     -366388.44      665.61557    
      1500   4514.3431     -364694.73      656.00883    
      1600   4499.413      -365165.11      654.8936     
      1700   4478.9218     -366094.62      638.82047    
      1800   4496.9898     -365095.35      621.80572    
      1900   4494.0646     -364959.36      613.28815    
      2000   4497.7681     -365640.17      595.52345    
      2100   4512.048      -365098.61      579.94305    
      2200   4512.3883     -365039.06      563.48382    
      2300   4494.4001     -365899.48      556.94555    
      2400   4494.6382     -365420.4       556.22998    
      2500   4505.7378     -364514.34      545.59531    
      2600   4492.853      -365571.34      524.62877    
      2700   4499.2897     -365431.05      500.10828    
      2800   4521.8177     -364364.47      475.83818    
      2900   4492.4116     -365457.12      454.25846    
      3000   4490.6138     -365945.25      433.93431    
      3100   4512.6317     -364724.36      416.99898    
      3200   4497.0059     -364951.22      395.80503    
      3300   4491.2055     -365634.29      377.67307    
      3400   4508.1558     -364804.58      360.26153    
      3500   4497.802      -365169.82      339.11525    
      3600   4510.417      -365314.59      322.56057    
      3700   4500.2359     -365260.57      316.08615    
      3800   4504.2148     -365400.85      302.52945    
      3900   4499.5383     -365409.83      285.40482    
      4000   4499.21       -365088.95      264.70167    
      4100   4502.5374     -365265.74      241.86545    
      4200   4502.6137     -365446.5       221.69766    
      4300   4497.9089     -365178.72      201.26822    
      4400   4515.1463     -364897.25      177.64276    
      4500   4498.6673     -365502.84      151.07808    
      4600   4495.5673     -365195         122.95621    
      4700   4500.8303     -365145.45      92.083007    
      4800   4504.9141     -365220.41      61.097189    
      4900   4512.5698     -365092.95      30.337263    
      5000   4487.217      -365494.33      0            
Loop time of 1506.56 on 4 procs for 5000 steps with 192000 atoms

Performance: 0.573 ns/day, 41.849 hours/ns, 3.319 timesteps/s
88.6% CPU use with 4 MPI tasks x no OpenMP threads

MPI task timing breakdown:
Section |  min time  |  avg time  |  max time  |%varavg| %total
---------------------------------------------------------------
Pair    | 1130.8     | 1134.3     | 1141.8     |  13.2 | 75.29
Neigh   | 322.62     | 323.42     | 323.91     |   2.8 | 21.47
Comm    | 20.264     | 28.176     | 32.225     |  88.8 |  1.87
Output  | 0.022304   | 0.023131   | 0.023953   |   0.4 |  0.00
Modify  | 14.444     | 14.566     | 14.731     |   2.7 |  0.97
Other   |            | 6.037      |            |       |  0.40

Nlocal:          48000 ave       48097 max       47855 min
Histogram: 1 0 0 0 0 0 1 1 0 1
Nghost:          29600 ave       29654 max       29499 min
Histogram: 1 0 0 0 0 0 0 1 1 1
Neighs:              0 ave           0 max           0 min
Histogram: 4 0 0 0 0 0 0 0 0 0
FullNghs:  5.50092e+06 ave 5.51459e+06 max 5.47297e+06 min
Histogram: 1 0 0 0 0 0 0 1 0 2

Total # of neighbors = 22003686
Ave neighs/atom = 114.60253
Neighbor list builds = 703
Dangerous builds = 0
